 # generated in python, 2021-05-13 15:30:37

       11720  atoms
           4  atom types

      0.00000000      55.84000015  xlo xhi
      0.00000000      48.35900116  ylo yhi
      0.00000000      44.90000153  zlo zhi

Masses

           1   22.98976928    # Na
           2   26.98153860    # Al
           3   15.99900000    # O
           4   15.99900000    # O defect


Atoms # charge

         1    1   1.000000       2.79200000       1.61195000       5.61250000
         2    1   1.000000       0.00000000       6.44785000       5.61250000
         3    1   1.000000       5.58400000       3.22395000       16.83750000
         4    1   1.000000       2.79200000       8.05985000       16.83750000
         5    2   3.000000       0.00000000       -0.00000000       -0.00000000
         6    2   3.000000       2.79200000       4.83590000       -0.00000000
         7    2   3.000000       0.00000000       -0.00000000       11.22500000
         8    2   3.000000       2.79200000       4.83590000       11.22500000
         9    2   3.000000       5.58400000       3.22395000       0.49390000
        10    2   3.000000       2.79200000       8.05985000       0.49390000
        11    2   3.000000       2.79200000       1.61195000       21.95610000
        12    2   3.000000       0.00000000       6.44785000       21.95610000
        13    2   3.000000       2.79200000       1.61195000       11.71890000
        14    2   3.000000       0.00000000       6.44785000       11.71890000
        15    2   3.000000       5.58400000       3.22395000       10.73110000
        16    2   3.000000       2.79200000       8.05985000       10.73110000
        17    2   3.000000       1.39600000       0.80600000       2.37970000
        18    2   3.000000       4.18800000       5.64190000       2.37970000
        19    2   3.000000       1.39600000       4.02990000       20.07030000
        20    2   3.000000       4.18800000       8.86580000       20.07030000
        21    2   3.000000       4.18800000       0.80600000       2.37970000
        22    2   3.000000       1.39600000       5.64190000       2.37970000
        23    2   3.000000       4.18800000       4.02990000       20.07030000
        24    2   3.000000       1.39600000       8.86580000       20.07030000
        25    2   3.000000       2.79200000       3.22395000       2.37970000
        26    2   3.000000       5.58400000       8.05985000       2.37970000
        27    2   3.000000       0.00000000       1.61195000       20.07030000
        28    2   3.000000       2.79200000       6.44785000       20.07030000
        29    2   3.000000       1.39600000       4.02990000       13.60470000
        30    2   3.000000       4.18800000       8.86580000       13.60470000
        31    2   3.000000       1.39600000       0.80600000       8.84530000
        32    2   3.000000       4.18800000       5.64190000       8.84530000
        33    2   3.000000       4.18800000       4.02990000       13.60470000
        34    2   3.000000       1.39600000       8.86580000       13.60470000
        35    2   3.000000       4.18800000       0.80600000       8.84530000
        36    2   3.000000       1.39600000       5.64190000       8.84530000
        37    2   3.000000       0.00000000       1.61195000       13.60470000
        38    2   3.000000       2.79200000       6.44785000       13.60470000
        39    2   3.000000       2.79200000       3.22395000       8.84530000
        40    2   3.000000       5.58400000       8.05985000       8.84530000
        41    2   3.000000       5.58400000       3.22395000       3.99610000
        42    2   3.000000       2.79200000       8.05985000       3.99610000
        43    2   3.000000       2.79200000       1.61195000       18.45390000
        44    2   3.000000       0.00000000       6.44785000       18.45390000
        45    2   3.000000       2.79200000       1.61195000       15.22110000
        46    2   3.000000       0.00000000       6.44785000       15.22110000
        47    2   3.000000       5.58400000       3.22395000       7.22890000
        48    2   3.000000       2.79200000       8.05985000       7.22890000
        49    3   -2.000000       0.00000000       1.61195000       1.12250000
        50    3   -2.000000       2.79200000       6.44785000       1.12250000
        51    3   -2.000000       2.79200000       3.22395000       21.32750000
        52    3   -2.000000       5.58400000       8.05985000       21.32750000
        53    3   -2.000000       1.39600000       4.02990000       1.12250000
        54    3   -2.000000       4.18800000       8.86580000       1.12250000
        55    3   -2.000000       1.39600000       0.80600000       21.32750000
        56    3   -2.000000       4.18800000       5.64190000       21.32750000
        57    3   -2.000000       4.18800000       4.02990000       1.12250000
        58    3   -2.000000       1.39600000       8.86580000       1.12250000
        59    3   -2.000000       4.18800000       0.80600000       21.32750000
        60    3   -2.000000       1.39600000       5.64190000       21.32750000
        61    3   -2.000000       2.79200000       3.22395000       12.34750000
        62    3   -2.000000       5.58400000       8.05985000       12.34750000
        63    3   -2.000000       0.00000000       1.61195000       10.10250000
        64    3   -2.000000       2.79200000       6.44785000       10.10250000
        65    3   -2.000000       1.39600000       0.80600000       12.34750000
        66    3   -2.000000       4.18800000       5.64190000       12.34750000
        67    3   -2.000000       1.39600000       4.02990000       10.10250000
        68    3   -2.000000       4.18800000       8.86580000       10.10250000
        69    3   -2.000000       4.18800000       0.80600000       12.34750000
        70    3   -2.000000       1.39600000       5.64190000       12.34750000
        71    3   -2.000000       4.18800000       4.02990000       10.10250000
        72    3   -2.000000       1.39600000       8.86580000       10.10250000
        73    3   -2.000000       2.79200000       1.61195000       1.12250000
        74    3   -2.000000       0.00000000       6.44785000       1.12250000
        75    3   -2.000000       5.58400000       3.22395000       21.32750000
        76    3   -2.000000       2.79200000       8.05985000       21.32750000
        77    3   -2.000000       5.58400000       3.22395000       12.34750000
        78    3   -2.000000       2.79200000       8.05985000       12.34750000
        79    3   -2.000000       2.79200000       1.61195000       10.10250000
        80    3   -2.000000       0.00000000       6.44785000       10.10250000
        81    3   -2.000000       0.00000000       -0.00000000       3.23280000
        82    3   -2.000000       2.79200000       4.83590000       3.23280000
        83    3   -2.000000       0.00000000       -0.00000000       19.21720000
        84    3   -2.000000       2.79200000       4.83590000       19.21720000
        85    3   -2.000000       0.00000000       -0.00000000       14.45780000
        86    3   -2.000000       2.79200000       4.83590000       14.45780000
        87    3   -2.000000       0.00000000       -0.00000000       7.99220000
        88    3   -2.000000       2.79200000       4.83590000       7.99220000
        89    3   -2.000000       1.39600000       2.41795000       3.23280000
        90    3   -2.000000       4.18800000       7.25385000       3.23280000
        91    3   -2.000000       1.39600000       2.41795000       19.21720000
        92    3   -2.000000       4.18800000       7.25385000       19.21720000
        93    3   -2.000000       2.79200000       -0.00000000       3.23280000
        94    3   -2.000000       0.00000000       4.83590000       3.23280000
        95    3   -2.000000       2.79200000       -0.00000000       19.21720000
        96    3   -2.000000       0.00000000       4.83590000       19.21720000
        97    3   -2.000000       4.18800000       2.41795000       3.23280000
        98    3   -2.000000       1.39600000       7.25385000       3.23280000
        99    3   -2.000000       4.18800000       2.41795000       19.21720000
       100    3   -2.000000       1.39600000       7.25385000       19.21720000
       101    3   -2.000000       1.39600000       2.41795000       14.45780000
       102    3   -2.000000       4.18800000       7.25385000       14.45780000
       103    3   -2.000000       1.39600000       2.41795000       7.99220000
       104    3   -2.000000       4.18800000       7.25385000       7.99220000
       105    3   -2.000000       2.79200000       -0.00000000       14.45780000
       106    3   -2.000000       0.00000000       4.83590000       14.45780000
       107    3   -2.000000       2.79200000       -0.00000000       7.99220000
       108    3   -2.000000       0.00000000       4.83590000       7.99220000
       109    3   -2.000000       4.18800000       2.41795000       14.45780000
       110    3   -2.000000       1.39600000       7.25385000       14.45780000
       111    3   -2.000000       4.18800000       2.41795000       7.99220000
       112    3   -2.000000       1.39600000       7.25385000       7.99220000
       113    3   -2.000000       5.58400000       3.22395000       5.61250000
       114    3   -2.000000       2.79200000       8.05985000       5.61250000
       115    3   -2.000000       2.79200000       1.61195000       16.83750000
       116    3   -2.000000       0.00000000       6.44785000       16.83750000
       117    1   1.000000       8.37600000       1.61195000       5.61250000
       118    1   1.000000       5.58400000       6.44785000       5.61250000
       119    1   1.000000       11.16800000       3.22395000       16.83750000
       120    1   1.000000       8.37600000       8.05985000       16.83750000
       121    2   3.000000       5.58400000       -0.00000000       -0.00000000
       122    2   3.000000       8.37600000       4.83590000       -0.00000000
       123    2   3.000000       5.58400000       -0.00000000       11.22500000
       124    2   3.000000       8.37600000       4.83590000       11.22500000
       125    2   3.000000       11.16800000       3.22395000       0.49390000
       126    2   3.000000       8.37600000       8.05985000       0.49390000
       127    2   3.000000       8.37600000       1.61195000       21.95610000
       128    2   3.000000       5.58400000       6.44785000       21.95610000
       129    2   3.000000       8.37600000       1.61195000       11.71890000
       130    2   3.000000       5.58400000       6.44785000       11.71890000
       131    2   3.000000       11.16800000       3.22395000       10.73110000
       132    2   3.000000       8.37600000       8.05985000       10.73110000
       133    2   3.000000       6.98000000       0.80600000       2.37970000
       134    2   3.000000       9.77200000       5.64190000       2.37970000
       135    2   3.000000       6.98000000       4.02990000       20.07030000
       136    2   3.000000       9.77200000       8.86580000       20.07030000
       137    2   3.000000       9.77200000       0.80600000       2.37970000
       138    2   3.000000       6.98000000       5.64190000       2.37970000
       139    2   3.000000       9.77200000       4.02990000       20.07030000
       140    2   3.000000       6.98000000       8.86580000       20.07030000
       141    2   3.000000       8.37600000       3.22395000       2.37970000
       142    2   3.000000       11.16800000       8.05985000       2.37970000
       143    2   3.000000       5.58400000       1.61195000       20.07030000
       144    2   3.000000       8.37600000       6.44785000       20.07030000
       145    2   3.000000       6.98000000       4.02990000       13.60470000
       146    2   3.000000       9.77200000       8.86580000       13.60470000
       147    2   3.000000       6.98000000       0.80600000       8.84530000
       148    2   3.000000       9.77200000       5.64190000       8.84530000
       149    2   3.000000       9.77200000       4.02990000       13.60470000
       150    2   3.000000       6.98000000       8.86580000       13.60470000
       151    2   3.000000       9.77200000       0.80600000       8.84530000
       152    2   3.000000       6.98000000       5.64190000       8.84530000
       153    2   3.000000       5.58400000       1.61195000       13.60470000
       154    2   3.000000       8.37600000       6.44785000       13.60470000
       155    2   3.000000       8.37600000       3.22395000       8.84530000
       156    2   3.000000       11.16800000       8.05985000       8.84530000
       157    2   3.000000       11.16800000       3.22395000       3.99610000
       158    2   3.000000       8.37600000       8.05985000       3.99610000
       159    2   3.000000       8.37600000       1.61195000       18.45390000
       160    2   3.000000       5.58400000       6.44785000       18.45390000
       161    2   3.000000       8.37600000       1.61195000       15.22110000
       162    2   3.000000       5.58400000       6.44785000       15.22110000
       163    2   3.000000       11.16800000       3.22395000       7.22890000
       164    2   3.000000       8.37600000       8.05985000       7.22890000
       165    3   -2.000000       5.58400000       1.61195000       1.12250000
       166    3   -2.000000       8.37600000       6.44785000       1.12250000
       167    3   -2.000000       8.37600000       3.22395000       21.32750000
       168    3   -2.000000       11.16800000       8.05985000       21.32750000
       169    3   -2.000000       6.98000000       4.02990000       1.12250000
       170    3   -2.000000       9.77200000       8.86580000       1.12250000
       171    3   -2.000000       6.98000000       0.80600000       21.32750000
       172    3   -2.000000       9.77200000       5.64190000       21.32750000
       173    3   -2.000000       9.77200000       4.02990000       1.12250000
       174    3   -2.000000       6.98000000       8.86580000       1.12250000
       175    3   -2.000000       9.77200000       0.80600000       21.32750000
       176    3   -2.000000       6.98000000       5.64190000       21.32750000
       177    3   -2.000000       8.37600000       3.22395000       12.34750000
       178    3   -2.000000       11.16800000       8.05985000       12.34750000
       179    3   -2.000000       5.58400000       1.61195000       10.10250000
       180    3   -2.000000       8.37600000       6.44785000       10.10250000
       181    3   -2.000000       6.98000000       0.80600000       12.34750000
       182    3   -2.000000       9.77200000       5.64190000       12.34750000
       183    3   -2.000000       6.98000000       4.02990000       10.10250000
       184    3   -2.000000       9.77200000       8.86580000       10.10250000
       185    3   -2.000000       9.77200000       0.80600000       12.34750000
       186    3   -2.000000       6.98000000       5.64190000       12.34750000
       187    3   -2.000000       9.77200000       4.02990000       10.10250000
       188    3   -2.000000       6.98000000       8.86580000       10.10250000
       189    3   -2.000000       8.37600000       1.61195000       1.12250000
       190    3   -2.000000       5.58400000       6.44785000       1.12250000
       191    3   -2.000000       11.16800000       3.22395000       21.32750000
       192    3   -2.000000       8.37600000       8.05985000       21.32750000
       193    3   -2.000000       11.16800000       3.22395000       12.34750000
       194    3   -2.000000       8.37600000       8.05985000       12.34750000
       195    3   -2.000000       8.37600000       1.61195000       10.10250000
       196    3   -2.000000       5.58400000       6.44785000       10.10250000
       197    3   -2.000000       5.58400000       -0.00000000       3.23280000
       198    3   -2.000000       8.37600000       4.83590000       3.23280000
       199    3   -2.000000       5.58400000       -0.00000000       19.21720000
       200    3   -2.000000       8.37600000       4.83590000       19.21720000
       201    3   -2.000000       5.58400000       -0.00000000       14.45780000
       202    3   -2.000000       8.37600000       4.83590000       14.45780000
       203    3   -2.000000       5.58400000       -0.00000000       7.99220000
       204    3   -2.000000       8.37600000       4.83590000       7.99220000
       205    3   -2.000000       6.98000000       2.41795000       3.23280000
       206    3   -2.000000       9.77200000       7.25385000       3.23280000
       207    3   -2.000000       6.98000000       2.41795000       19.21720000
       208    3   -2.000000       9.77200000       7.25385000       19.21720000
       209    3   -2.000000       8.37600000       -0.00000000       3.23280000
       210    3   -2.000000       5.58400000       4.83590000       3.23280000
       211    3   -2.000000       8.37600000       -0.00000000       19.21720000
       212    3   -2.000000       5.58400000       4.83590000       19.21720000
       213    3   -2.000000       9.77200000       2.41795000       3.23280000
       214    3   -2.000000       6.98000000       7.25385000       3.23280000
       215    3   -2.000000       9.77200000       2.41795000       19.21720000
       216    3   -2.000000       6.98000000       7.25385000       19.21720000
       217    3   -2.000000       6.98000000       2.41795000       14.45780000
       218    3   -2.000000       9.77200000       7.25385000       14.45780000
       219    3   -2.000000       6.98000000       2.41795000       7.99220000
       220    3   -2.000000       9.77200000       7.25385000       7.99220000
       221    3   -2.000000       8.37600000       -0.00000000       14.45780000
       222    3   -2.000000       5.58400000       4.83590000       14.45780000
       223    3   -2.000000       8.37600000       -0.00000000       7.99220000
       224    3   -2.000000       5.58400000       4.83590000       7.99220000
       225    3   -2.000000       9.77200000       2.41795000       14.45780000
       226    3   -2.000000       6.98000000       7.25385000       14.45780000
       227    3   -2.000000       9.77200000       2.41795000       7.99220000
       228    3   -2.000000       6.98000000       7.25385000       7.99220000
       229    3   -2.000000       11.16800000       3.22395000       5.61250000
       230    3   -2.000000       8.37600000       8.05985000       5.61250000
       231    3   -2.000000       8.37600000       1.61195000       16.83750000
       232    3   -2.000000       5.58400000       6.44785000       16.83750000
       233    1   1.000000       13.96000000       1.61195000       5.61250000
       234    1   1.000000       11.16800000       6.44785000       5.61250000
       235    1   1.000000       16.75200000       3.22395000       16.83750000
       236    1   1.000000       13.96000000       8.05985000       16.83750000
       237    2   3.000000       11.16800000       -0.00000000       -0.00000000
       238    2   3.000000       13.96000000       4.83590000       -0.00000000
       239    2   3.000000       11.16800000       -0.00000000       11.22500000
       240    2   3.000000       13.96000000       4.83590000       11.22500000
       241    2   3.000000       16.75200000       3.22395000       0.49390000
       242    2   3.000000       13.96000000       8.05985000       0.49390000
       243    2   3.000000       13.96000000       1.61195000       21.95610000
       244    2   3.000000       11.16800000       6.44785000       21.95610000
       245    2   3.000000       13.96000000       1.61195000       11.71890000
       246    2   3.000000       11.16800000       6.44785000       11.71890000
       247    2   3.000000       16.75200000       3.22395000       10.73110000
       248    2   3.000000       13.96000000       8.05985000       10.73110000
       249    2   3.000000       12.56400000       0.80600000       2.37970000
       250    2   3.000000       15.35600000       5.64190000       2.37970000
       251    2   3.000000       12.56400000       4.02990000       20.07030000
       252    2   3.000000       15.35600000       8.86580000       20.07030000
       253    2   3.000000       15.35600000       0.80600000       3.99610000
       254    2   3.000000       12.56400000       5.64190000       2.37970000
       255    2   3.000000       15.35600000       4.02990000       20.07030000
       256    2   3.000000       12.56400000       8.86580000       20.07030000
       257    2   3.000000       13.96000000       3.22395000       2.37970000
       258    2   3.000000       16.75200000       8.05985000       2.37970000
       259    2   3.000000       11.16800000       1.61195000       20.07030000
       260    2   3.000000       13.96000000       6.44785000       20.07030000
       261    2   3.000000       12.56400000       4.02990000       13.60470000
       262    2   3.000000       15.35600000       8.86580000       13.60470000
       263    2   3.000000       12.56400000       0.80600000       8.84530000
       264    2   3.000000       15.35600000       5.64190000       8.84530000
       265    2   3.000000       15.35600000       4.02990000       13.60470000
       266    2   3.000000       12.56400000       8.86580000       13.60470000
       267    2   3.000000       15.35600000       0.80600000       7.22890000
       268    2   3.000000       12.56400000       5.64190000       8.84530000
       269    2   3.000000       11.16800000       1.61195000       13.60470000
       270    2   3.000000       13.96000000       6.44785000       13.60470000
       271    2   3.000000       13.96000000       3.22395000       8.84530000
       272    2   3.000000       16.75200000       8.05985000       8.84530000
       273    2   3.000000       16.75200000       3.22395000       3.99610000
       274    2   3.000000       13.96000000       8.05985000       3.99610000
       275    2   3.000000       13.96000000       1.61195000       18.45390000
       276    2   3.000000       11.16800000       6.44785000       18.45390000
       277    2   3.000000       13.96000000       1.61195000       15.22110000
       278    2   3.000000       11.16800000       6.44785000       15.22110000
       279    2   3.000000       16.75200000       3.22395000       7.22890000
       280    2   3.000000       13.96000000       8.05985000       7.22890000
       281    3   -2.000000       11.16800000       1.61195000       1.12250000
       282    3   -2.000000       13.96000000       6.44785000       1.12250000
       283    3   -2.000000       13.96000000       3.22395000       21.32750000
       284    3   -2.000000       16.75200000       8.05985000       21.32750000
       285    3   -2.000000       12.56400000       4.02990000       1.12250000
       286    3   -2.000000       15.35600000       8.86580000       1.12250000
       287    3   -2.000000       12.56400000       0.80600000       21.32750000
       288    3   -2.000000       15.35600000       5.64190000       21.32750000
       289    3   -2.000000       15.35600000       4.02990000       1.12250000
       290    3   -2.000000       12.56400000       8.86580000       1.12250000
       291    3   -2.000000       15.35600000       0.80600000       21.32750000
       292    3   -2.000000       12.56400000       5.64190000       21.32750000
       293    3   -2.000000       13.96000000       3.22395000       12.34750000
       294    3   -2.000000       16.75200000       8.05985000       12.34750000
       295    3   -2.000000       11.16800000       1.61195000       10.10250000
       296    3   -2.000000       13.96000000       6.44785000       10.10250000
       297    3   -2.000000       12.56400000       0.80600000       12.34750000
       298    3   -2.000000       15.35600000       5.64190000       12.34750000
       299    3   -2.000000       12.56400000       4.02990000       10.10250000
       300    3   -2.000000       15.35600000       8.86580000       10.10250000
       301    3   -2.000000       15.35600000       0.80600000       12.34750000
       302    3   -2.000000       12.56400000       5.64190000       12.34750000
       303    3   -2.000000       15.35600000       4.02990000       10.10250000
       304    3   -2.000000       12.56400000       8.86580000       10.10250000
       305    3   -2.000000       13.96000000       1.61195000       1.12250000
       306    3   -2.000000       11.16800000       6.44785000       1.12250000
       307    3   -2.000000       16.75200000       3.22395000       21.32750000
       308    3   -2.000000       13.96000000       8.05985000       21.32750000
       309    3   -2.000000       16.75200000       3.22395000       12.34750000
       310    3   -2.000000       13.96000000       8.05985000       12.34750000
       311    3   -2.000000       13.96000000       1.61195000       10.10250000
       312    3   -2.000000       11.16800000       6.44785000       10.10250000
       313    3   -2.000000       11.16800000       -0.00000000       3.23280000
       314    3   -2.000000       13.96000000       4.83590000       3.23280000
       315    3   -2.000000       11.16800000       -0.00000000       19.21720000
       316    3   -2.000000       13.96000000       4.83590000       19.21720000
       317    3   -2.000000       11.16800000       -0.00000000       14.45780000
       318    3   -2.000000       13.96000000       4.83590000       14.45780000
       319    3   -2.000000       11.16800000       -0.00000000       7.99220000
       320    3   -2.000000       13.96000000       4.83590000       7.99220000
       321    3   -2.000000       12.56400000       2.41795000       3.23280000
       322    3   -2.000000       15.35600000       7.25385000       3.23280000
       323    3   -2.000000       12.56400000       2.41795000       19.21720000
       324    3   -2.000000       15.35600000       7.25385000       19.21720000
       325    3   -2.000000       13.96000000       -0.00000000       3.23280000
       326    3   -2.000000       11.16800000       4.83590000       3.23280000
       327    3   -2.000000       13.96000000       -0.00000000       19.21720000
       328    3   -2.000000       11.16800000       4.83590000       19.21720000
       329    3   -2.000000       15.35600000       2.41795000       3.23280000
       330    3   -2.000000       12.56400000       7.25385000       3.23280000
       331    3   -2.000000       15.35600000       2.41795000       19.21720000
       332    3   -2.000000       12.56400000       7.25385000       19.21720000
       333    3   -2.000000       12.56400000       2.41795000       14.45780000
       334    3   -2.000000       15.35600000       7.25385000       14.45780000
       335    3   -2.000000       12.56400000       2.41795000       7.99220000
       336    3   -2.000000       15.35600000       7.25385000       7.99220000
       337    3   -2.000000       13.96000000       -0.00000000       14.45780000
       338    3   -2.000000       11.16800000       4.83590000       14.45780000
       339    3   -2.000000       13.96000000       -0.00000000       7.99220000
       340    3   -2.000000       11.16800000       4.83590000       7.99220000
       341    3   -2.000000       15.35600000       2.41795000       14.45780000
       342    3   -2.000000       12.56400000       7.25385000       14.45780000
       343    3   -2.000000       15.35600000       2.41795000       7.99220000
       344    3   -2.000000       12.56400000       7.25385000       7.99220000
       345    3   -2.000000       16.75200000       3.22395000       5.61250000
       346    3   -2.000000       13.96000000       8.05985000       5.61250000
       347    3   -2.000000       13.96000000       1.61195000       16.83750000
       348    3   -2.000000       11.16800000       6.44785000       16.83750000
       349    1   1.000000       19.54400000       1.61195000       5.61250000
       350    1   1.000000       16.75200000       6.44785000       5.61250000
       351    1   1.000000       22.33600000       3.22395000       16.83750000
       352    1   1.000000       19.54400000       8.05985000       16.83750000
       353    2   3.000000       16.75200000       -0.00000000       -0.00000000
       354    2   3.000000       19.54400000       4.83590000       -0.00000000
       355    2   3.000000       16.75200000       -0.00000000       11.22500000
       356    2   3.000000       19.54400000       4.83590000       11.22500000
       357    2   3.000000       22.33600000       3.22395000       0.49390000
       358    2   3.000000       19.54400000       8.05985000       0.49390000
       359    2   3.000000       19.54400000       1.61195000       21.95610000
       360    2   3.000000       16.75200000       6.44785000       21.95610000
       361    2   3.000000       19.54400000       1.61195000       11.71890000
       362    2   3.000000       16.75200000       6.44785000       11.71890000
       363    2   3.000000       22.33600000       3.22395000       10.73110000
       364    2   3.000000       19.54400000       8.05985000       10.73110000
       365    2   3.000000       18.14800000       0.80600000       2.37970000
       366    2   3.000000       20.94000000       5.64190000       2.37970000
       367    2   3.000000       18.14800000       4.02990000       20.07030000
       368    2   3.000000       20.94000000       8.86580000       20.07030000
       369    2   3.000000       20.94000000       0.80600000       2.37970000
       370    2   3.000000       18.14800000       5.64190000       2.37970000
       371    2   3.000000       20.94000000       4.02990000       20.07030000