 # generated in python, 2021-05-13 18:13:16

       10680  atoms
           4  atom types

      0.00000000      56.30000000  xlo xhi
      0.00000000      58.50840000  ylo yhi
      0.00000000      33.45000000  zlo zhi

Masses

           1   22.98976928    # Na
           2   26.98153860    # Al
           3   15.99900000    # O
           4   24.30500000    # Mg


Atoms # charge

         1    1   1.000000       33.78000000       52.00747000       27.96979000
         2    1   1.000000       42.22500000       11.37667000       5.48021000
         3    1   1.000000       22.52000000       16.25235000       16.81976000
         4    1   1.000000       28.15000000       13.00185000       27.96979000
         5    1   1.000000       36.59500000       11.37667000       16.81976000
         6    1   1.000000       30.96500000       14.62710000       27.78022000
         7    1   1.000000       36.59500000       14.62710000       5.66978000
         8    1   1.000000       22.52000000       9.75142000       5.66978000
         9    1   1.000000       39.41000000       9.75142000       27.78022000
        10    1   1.000000       30.96500000       17.87759000       16.63024000
        11    1   1.000000       30.96500000       14.62710000       5.66978000
        12    1   1.000000       42.22500000       14.62710000       27.78022000
        13    1   1.000000       22.52000000       16.25235000       5.48021000
        14    1   1.000000       14.07500000       40.63087000       5.48021000
        15    1   1.000000       14.07500000       43.88130000       5.66978000
        16    1   1.000000       11.26000000       45.50655000       5.48021000
        17    1   1.000000       25.33500000       17.87759000       16.63024000
        18    1   1.000000       39.41000000       16.25235000       5.48021000
        19    1   1.000000       28.15000000       9.75142000       5.66978000
        20    1   1.000000       39.41000000       9.75142000       5.66978000
        21    1   1.000000       33.78000000       9.75142000       5.66978000
        22    1   1.000000       53.48500000       4.87568000       5.66978000
        23    1   1.000000       47.85500000       1.62525000       5.48021000
        24    1   1.000000       45.04000000       0.00000000       5.66978000
        25    1   1.000000       0.00000000       3.25049000       27.96979000
        26    1   1.000000       50.67000000       6.50093000       16.81976000
        27    1   1.000000       53.48500000       4.87568000       27.78022000
        28    1   1.000000       0.00000000       16.25235000       5.48021000
        29    1   1.000000       45.04000000       0.00000000       27.78022000
        30    1   1.000000       47.85500000       4.87568000       27.78022000
        31    1   1.000000       0.00000000       9.75142000       27.78022000
        32    1   1.000000       8.44500000       17.87759000       16.63024000
        33    1   1.000000       0.00000000       22.75327000       16.63024000
        34    1   1.000000       53.48500000       27.62895000       27.96979000
        35    1   1.000000       39.41000000       13.00185000       16.63024000
        36    1   1.000000       33.78000000       16.25235000       16.81976000
        37    1   1.000000       45.04000000       13.00185000       27.96979000
        38    1   1.000000       28.15000000       16.25235000       16.81976000
        39    1   1.000000       2.81500000       14.62710000       5.66978000
        40    1   1.000000       30.96500000       11.37667000       16.81976000
        41    1   1.000000       47.85500000       27.62895000       16.63024000
        42    1   1.000000       53.48500000       21.12803000       5.48021000
        43    1   1.000000       47.85500000       53.63272000       27.78022000
        44    1   1.000000       45.04000000       26.00377000       5.48021000
        45    1   1.000000       53.48500000       27.62895000       16.63024000
        46    1   1.000000       50.67000000       26.00377000       16.81976000
        47    1   1.000000       50.67000000       55.25797000       16.81976000
        48    1   1.000000       0.00000000       22.75327000       27.96979000
        49    1   1.000000       47.85500000       27.62895000       27.96979000
        50    1   1.000000       11.26000000       48.75698000       5.66978000
        51    1   1.000000       45.04000000       26.00377000       16.81976000
        52    1   1.000000       5.63000000       35.75513000       5.48021000
        53    1   1.000000       5.63000000       29.25420000       27.78022000
        54    1   1.000000       11.26000000       55.25797000       16.81976000
        55    1   1.000000       8.44500000       34.12988000       27.78022000
        56    1   1.000000       0.00000000       52.00747000       16.63024000
        57    1   1.000000       2.81500000       11.37667000       16.81976000
        58    1   1.000000       53.48500000       8.12617000       27.96979000
        59    1   1.000000       39.41000000       6.50093000       5.48021000
        60    1   1.000000       45.04000000       3.25049000       27.96979000
        61    1   1.000000       25.33500000       11.37667000       16.81976000
        62    1   1.000000       25.33500000       14.62710000       5.66978000
        63    1   1.000000       42.22500000       17.87759000       16.63024000
        64    1   1.000000       25.33500000       11.37667000       5.48021000
        65    1   1.000000       28.15000000       9.75142000       27.78022000
        66    1   1.000000       5.63000000       29.25420000       5.66978000
        67    1   1.000000       47.85500000       21.12803000       16.81976000
        68    1   1.000000       47.85500000       24.37852000       5.66978000
        69    1   1.000000       45.04000000       19.50278000       5.66978000
        70    1   1.000000       47.85500000       21.12803000       5.48021000
        71    1   1.000000       2.81500000       37.38037000       27.96979000
        72    1   1.000000       50.67000000       22.75327000       16.63024000
        73    1   1.000000       33.78000000       13.00185000       16.63024000
        74    1   1.000000       53.48500000       40.63087000       16.81976000
        75    1   1.000000       50.67000000       6.50093000       5.48021000
        76    1   1.000000       39.41000000       6.50093000       16.81976000
        77    1   1.000000       11.26000000       16.25235000       5.48021000
        78    1   1.000000       14.07500000       11.37667000       5.48021000
        79    1   1.000000       22.52000000       9.75142000       27.78022000
        80    1   1.000000       16.89000000       9.75142000       5.66978000
        81    1   1.000000       11.26000000       16.25235000       16.81976000
        82    1   1.000000       47.85500000       8.12617000       27.96979000
        83    1   1.000000       50.67000000       0.00000000       27.78022000
        84    1   1.000000       28.15000000       45.50655000       5.48021000
        85    1   1.000000       14.07500000       17.87759000       16.63024000
        86    1   1.000000       30.96500000       11.37667000       5.48021000
        87    1   1.000000       19.70500000       11.37667000       16.81976000
        88    1   1.000000       28.15000000       3.25049000       27.96979000
        89    1   1.000000       25.33500000       8.12617000       16.63024000
        90    1   1.000000       28.15000000       0.00000000       5.66978000
        91    1   1.000000       28.15000000       16.25235000       5.48021000
        92    1   1.000000       47.85500000       8.12617000       16.63024000
        93    1   1.000000       19.70500000       17.87759000       16.63024000
        94    1   1.000000       22.52000000       13.00185000       27.96979000
        95    1   1.000000       19.70500000       17.87759000       27.96979000
        96    1   1.000000       19.70500000       47.13179000       16.63024000
        97    1   1.000000       16.89000000       45.50655000       5.48021000
        98    1   1.000000       14.07500000       47.13179000       27.96979000
        99    1   1.000000       2.81500000       21.12803000       16.81976000
       100    1   1.000000       42.22500000       40.63087000       16.81976000
       101    1   1.000000       5.63000000       19.50278000       27.78022000
       102    1   1.000000       33.78000000       22.75327000       27.96979000
       103    1   1.000000       36.59500000       21.12803000       5.48021000
       104    1   1.000000       33.78000000       19.50278000       27.78022000
       105    1   1.000000       42.22500000       47.13179000       27.96979000
       106    1   1.000000       33.78000000       39.00562000       27.78022000
       107    1   1.000000       25.33500000       27.62895000       16.63024000
       108    1   1.000000       28.15000000       19.50278000       27.78022000
       109    1   1.000000       30.96500000       21.12803000       16.81976000
       110    1   1.000000       33.78000000       19.50278000       5.66978000
       111    1   1.000000       30.96500000       24.37852000       5.66978000
       112    1   1.000000       45.04000000       13.00185000       16.63024000
       113    1   1.000000       30.96500000       24.37852000       27.78022000
       114    1   1.000000       28.15000000       22.75327000       16.63024000
       115    1   1.000000       39.41000000       16.25235000       16.81976000
       116    1   1.000000       33.78000000       45.50655000       5.48021000
       117    1   1.000000       5.63000000       16.25235000       16.81976000
       118    1   1.000000       45.04000000       3.25049000       16.63024000
       119    1   1.000000       11.26000000       13.00185000       27.96979000
       120    1   1.000000       8.44500000       11.37667000       5.48021000
       121    1   1.000000       42.22500000       50.38223000       5.48021000
       122    1   1.000000       25.33500000       21.12803000       16.81976000
       123    1   1.000000       53.48500000       21.12803000       16.81976000
       124    1   1.000000       42.22500000       53.63272000       5.66978000
       125    1   1.000000       50.67000000       3.25049000       16.63024000
       126    1   1.000000       50.67000000       3.25049000       27.96979000
       127    1   1.000000       42.22500000       1.62525000       5.48021000
       128    1   1.000000       42.22500000       1.62525000       16.81976000
       129    1   1.000000       45.04000000       6.50093000       5.48021000
       130    1   1.000000       42.22500000       4.87568000       5.66978000
       131    1   1.000000       45.04000000       6.50093000       16.81976000
       132    1   1.000000       42.22500000       8.12617000       16.63024000
       133    1   1.000000       47.85500000       1.62525000       16.81976000
       134    1   1.000000       8.44500000       21.12803000       5.48021000
       135    1   1.000000       2.81500000       14.62710000       27.78022000
       136    1   1.000000       0.00000000       3.25049000       16.63024000
       137    1   1.000000       8.44500000       24.37852000       5.66978000
       138    1   1.000000       42.22500000       8.12617000       27.96979000
       139    1   1.000000       14.07500000       14.62710000       27.78022000
       140    1   1.000000       19.70500000       11.37667000       5.48021000
       141    1   1.000000       14.07500000       14.62710000       5.66978000
       142    1   1.000000       19.70500000       14.62710000       5.66978000
       143    1   1.000000       16.89000000       16.25235000       16.81976000
       144    1   1.000000       8.44500000       17.87759000       27.96979000
       145    1   1.000000       16.89000000       13.00185000       27.96979000
       146    1   1.000000       22.52000000       13.00185000       16.63024000
       147    1   1.000000       11.26000000       13.00185000       16.63024000
       148    1   1.000000       14.07500000       17.87759000       27.96979000
       149    1   1.000000       5.63000000       16.25235000       5.48021000
       150    1   1.000000       8.44500000       14.62710000       27.78022000
       151    1   1.000000       5.63000000       9.75142000       5.66978000
       152    1   1.000000       8.44500000       14.62710000       5.66978000
       153    1   1.000000       16.89000000       9.75142000       27.78022000
       154    1   1.000000       16.89000000       16.25235000       5.48021000
       155    1   1.000000       0.00000000       9.75142000       5.66978000
       156    1   1.000000       53.48500000       1.62525000       16.81976000
       157    1   1.000000       8.44500000       11.37667000       16.81976000
       158    1   1.000000       5.63000000       32.50469000       16.63024000
       159    1   1.000000       0.00000000       35.75513000       16.81976000
       160    1   1.000000       50.67000000       26.00377000       5.48021000
       161    1   1.000000       14.07500000       8.12617000       27.96979000
       162    1   1.000000       22.52000000       6.50093000       16.81976000
       163    1   1.000000       30.96500000       1.62525000       16.81976000
       164    1   1.000000       33.78000000       6.50093000       16.81976000
       165    1   1.000000       28.15000000       3.25049000       16.63024000
       166    1   1.000000       33.78000000       6.50093000       5.48021000
       167    1   1.000000       39.41000000       3.25049000       16.63024000
       168    1   1.000000       33.78000000       3.25049000       27.96979000
       169    1   1.000000       33.78000000       0.00000000       5.66978000
       170    1   1.000000       2.81500000       17.87759000       27.96979000
       171    1   1.000000       5.63000000       9.75142000       27.78022000
       172    1   1.000000       36.59500000       8.12617000       16.63024000
       173    1   1.000000       30.96500000       8.12617000       16.63024000
       174    1   1.000000       33.78000000       3.25049000       16.63024000
       175    1   1.000000       30.96500000       4.87568000       5.66978000
       176    1   1.000000       2.81500000       17.87759000       16.63024000
       177    1   1.000000       16.89000000       6.50093000       16.81976000
       178    1   1.000000       8.44500000       21.12803000       16.81976000
       179    1   1.000000       14.07500000       8.12617000       16.63024000
       180    1   1.000000       16.89000000       0.00000000       5.66978000
       181    1   1.000000       39.41000000       3.25049000       27.96979000
       182    1   1.000000       0.00000000       16.25235000       16.81976000
       183    1   1.000000       19.70500000       8.12617000       27.96979000
       184    1   1.000000       25.33500000       4.87568000       5.66978000
       185    1   1.000000       19.70500000       8.12617000       16.63024000
       186    1   1.000000       22.52000000       6.50093000       5.48021000
       187    1   1.000000       5.63000000       13.00185000       16.63024000
       188    1   1.000000       36.59500000       1.62525000       5.48021000
       189    1   1.000000       33.78000000       0.00000000       27.78022000
       190    1   1.000000       25.33500000       4.87568000       27.78022000
       191    1   1.000000       25.33500000       8.12617000       27.96979000
       192    1   1.000000       22.52000000       0.00000000       5.66978000
       193    1   1.000000       22.52000000       3.25049000       16.63024000
       194    1   1.000000       30.96500000       8.12617000       27.96979000
       195    1   1.000000       28.15000000       0.00000000       27.78022000
       196    1   1.000000       5.63000000       26.00377000       16.81976000
       197    1   1.000000       30.96500000       4.87568000       27.78022000
       198    1   1.000000       5.63000000       0.00000000       5.66978000
       199    1   1.000000       2.81500000       8.12617000       16.63024000
       200    1   1.000000       5.63000000       3.25049000       27.96979000
       201    1   1.000000       2.81500000       8.12617000       27.96979000
       202    1   1.000000       5.63000000       0.00000000       27.78022000
       203    1   1.000000       11.26000000       0.00000000       27.78022000
       204    1   1.000000       0.00000000       6.50093000       16.81976000
       205    1   1.000000       8.44500000       4.87568000       5.66978000
       206    1   1.000000       11.26000000       3.25049000       27.96979000
       207    1   1.000000       5.63000000       6.50093000       5.48021000
       208    1   1.000000       0.00000000       6.50093000       5.48021000
       209    1   1.000000       2.81500000       1.62525000       5.48021000
       210    1   1.000000       0.00000000       0.00000000       5.66978000
       211    1   1.000000       2.81500000       4.87568000       27.78022000
       212    1   1.000000       0.00000000       0.00000000       27.78022000
       213    1   1.000000       8.44500000       8.12617000       16.63024000
       214    1   1.000000       2.81500000       1.62525000       16.81976000
       215    1   1.000000       5.63000000       3.25049000       16.63024000
       216    1   1.000000       14.07500000       1.62525000       16.81976000
       217    1   1.000000       8.44500000       8.12617000       27.96979000
       218    1   1.000000       11.26000000       6.50093000       5.48021000
       219    1   1.000000       16.89000000       3.25049000       27.96979000
       220    1   1.000000       11.26000000       3.25049000       16.63024000
       221    1   1.000000       39.41000000       0.00000000       27.78022000
       222    1   1.000000       36.59500000       8.12617000       27.96979000
       223    1   1.000000       30.96500000       1.62525000       5.48021000
       224    1   1.000000       16.89000000       0.00000000       27.78022000
       225    1   1.000000       14.07500000       1.62525000       5.48021000
       226    1   1.000000       11.26000000       0.00000000       5.66978000
       227    1   1.000000       28.15000000       6.50093000       5.48021000
       228    1   1.000000       14.07500000       4.87568000       5.66978000
       229    1   1.000000       16.89000000       6.50093000       5.48021000
       230    1   1.000000       8.44500000       1.62525000       5.48021000
       231    1   1.000000       5.63000000       26.00377000       5.48021000
       232    1   1.000000       28.15000000       39.00562000       5.66978000
       233    1   1.000000       33.78000000       42.25605000       27.96979000
       234    1   1.000000       19.70500000       24.37852000       5.66978000
       235    1   1.000000       14.07500000       27.62895000       27.96979000
       236    1   1.000000       11.26000000       26.00377000       5.48021000
       237    1   1.000000       22.52000000       22.75327000       27.96979000
       238    1   1.000000       19.70500000       24.37852000       27.78022000
       239    1   1.000000       14.07500000       21.12803000       16.81976000
       240    1   1.000000       11.26000000       22.75327000       16.63024000
       241    1   1.000000       16.89000000       22.75327000       27.96979000
       242    1   1.000000       11.26000000       19.50278000       27.78022000
       243    1   1.000000       11.26000000       22.75327000       27.96979000
       244    1   1.000000       16.89000000       22.75327000       16.63024000
       245    1   1.000000       8.44500000       27.62895000       27.96979000
       246    1   1.000000       11.26000000       26.00377000       16.81976000
       247    1   1.000000       22.52000000       19.50278000       27.78022000
       248    1   1.000000       19.70500000       27.62895000       27.96979000
       249    1   1.000000       8.44500000       27.62895000       16.63024000
       250    1   1.000000       14.07500000       24.37852000       27.78022000
       251    1   1.000000       14.07500000       11.37667000       16.81976000
       252    1   1.000000       16.89000000       13.00185000       16.63024000
       253    1   1.000000       53.48500000       24.37852000       5.66978000
       254    1   1.000000       53.48500000       24.37852000       27.78022000
       255    1   1.000000       8.44500000       34.12988000       5.66978000
       256    1   1.000000       2.81500000       30.87945000       16.81976000
       257    1   1.000000       11.26000000       32.50469000       16.63024000
       258    1   1.000000       42.22500000       4.87568000       27.78022000
       259    1   1.000000       39.41000000       0.00000000       5.66978000
       260    1   1.000000       36.59500000       1.62525000       16.81976000
       261    1   1.000000       25.33500000       1.62525000       16.81976000
       262    1   1.000000       22.52000000       26.00377000       5.48021000
       263    1   1.000000       19.70500000       21.12803000       16.81976000
       264    1   1.000000       39.41000000       22.75327000       16.63024000
       265    1   1.000000       33.78000000       26.00377000       5.48021000
       266    1   1.000000       25.33500000       24.37852000       5.66978000
       267    1   1.000000       22.52000000       26.00377000       16.81976000
       268    1   1.000000       16.89000000       26.00377000       16.81976000
       269    1   1.000000       25.33500000       21.12803000       5.48021000
       270    1   1.000000       14.07500000       24.37852000       5.66978000
       271    1   1.000000       22.52000000       42.25605000       16.63024000
       272    1   1.000000       25.33500000       47.13179000       16.63024000
       273    1   1.000000       45.04000000       42.25605000       16.63024000
       274    1   1.000000       30.96500000       47.13179000       16.63024000
       275    1   1.000000       22.52000000       45.50655000       5.48021000
       276    1   1.000000       30.96500000       40.63087000       5.48021000
       277    1   1.000000       25.33500000       43.88130000       27.78022000
       278    1   1.000000       16.89000000       42.25605000       27.96979000
       279    1   1.000000       14.07500000       47.13179000       16.63024000
       280    1   1.000000       19.70500000       43.88130000       5.66978000
       281    1   1.000000       25.33500000       47.13179000       27.96979000
       282    1   1.000000       28.15000000       42.25605000       27.96979000
       283    1   1.000000       25.33500000       40.63087000       16.81976000
       284    1   1.000000       45.04000000       42.25605000       27.96979000
       285    1   1.000000       28.15000000       39.00562000       27.78022000
       286    1   1.000000       19.70500000       40.63087000       16.81976000
       287    1   1.000000       16.89000000       39.00562000       27.78022000
       288    1   1.000000       14.07500000       21.12803000       5.48021000
       289    1   1.000000       11.26000000       19.50278000       5.66978000
       290    1   1.000000       33.78000000       26.00377000       16.81976000
       291    1   1.000000       22.52000000       22.75327000       16.63024000
       292    1   1.000000       16.89000000       19.50278000       5.66978000
       293    1   1.000000       22.52000000       39.00562000       27.78022000
       294    1   1.000000       22.52000000       39.00562000       5.66978000
       295    1   1.000000       16.89000000       45.50655000       16.81976000
       296    1   1.000000       22.52000000       42.25605000       27.96979000
       297    1   1.000000       22.52000000       45.50655000       16.81976000
       298    1   1.000000       50.67000000       16.25235000       16.81976000
       299    1   1.000000       50.67000000       13.00185000       27.96979000
       300    1   1.000000       53.48500000       14.62710000       5.66978000
       301    1   1.000000       19.70500000       40.63087000       5.48021000
       302    1   1.000000       19.70500000       47.13179000       27.96979000
       303    1   1.000000       16.89000000       39.00562000       5.66978000
       304    1   1.000000       30.96500000       43.88130000       27.78022000
       305    1   1.000000       11.26000000       45.50655000       16.81976000
       306    1   1.000000       36.59500000       24.37852000       27.78022000
       307    1   1.000000       28.15000000       48.75698000       5.66978000
       308    1   1.000000       45.04000000       22.75327000       16.63024000
       309    1   1.000000       45.04000000       52.00747000       27.96979000
       310    1   1.000000       53.48500000       53.63272000       27.78022000
       311    1   1.000000       39.41000000       55.25797000       5.48021000
       312    1   1.000000       45.04000000       48.75698000       27.78022000
       313    1   1.000000       42.22500000       50.38223000       16.81976000
       314    1   1.000000       33.78000000       55.25797000       5.48021000
       315    1   1.000000       36.59500000       50.38223000       5.48021000
       316    1   1.000000       53.48500000       11.37667000       16.81976000
       317    1   1.000000       0.00000000       13.00185000       27.96979000
       318    1   1.000000       5.63000000       42.25605000       16.63024000
       319    1   1.000000       8.44500000       43.88130000       5.66978000
       320    1   1.000000       50.67000000       39.00562000       5.66978000
       321    1   1.000000       36.59500000       56.88315000       27.96979000
       322    1   1.000000       47.85500000       56.88315000       16.63024000
       323    1   1.000000       47.85500000       56.88315000       27.96979000
       324    1   1.000000       33.78000000       55.25797000       16.81976000
       325    1   1.000000       50.67000000       52.00747000       27.96979000
       326    1   1.000000       47.85500000       50.38223000       16.81976000
       327    1   1.000000       39.41000000       22.75327000       27.96979000
       328    1   1.000000       36.59500000       27.62895000       16.63024000
       329    1   1.000000       8.44500000       43.88130000       27.78022000
       330    1   1.000000       45.04000000       48.75698000       5.66978000
       331    1   1.000000       50.67000000       52.00747000       16.63024000
       332    1   1.000000       53.48500000       56.88315000       27.96979000
       333    1   1.000000       50.67000000       48.75698000       27.78022000
       334    1   1.000000       53.48500000       56.88315000       16.63024000
       335    1   1.000000       39.41000000       48.75698000       5.66978000
       336    1   1.000000       53.48500000       50.38223000       16.81976000
       337    1   1.000000       45.04000000       55.25797000       16.81976000
       338    1   1.000000       47.85500000       50.38223000       5.48021000
       339    1   1.000000       11.26000000       29.25420000       27.78022000
       340    1   1.000000       45.04000000       52.00747000       16.63024000
       341    1   1.000000       39.41000000       48.75698000       27.78022000
       342    1   1.000000       33.78000000       45.50655000       16.81976000
       343    1   1.000000       14.07500000       34.12988000       27.78022000
       344    1   1.000000       50.67000000       42.25605000       16.63024000
       345    1   1.000000       47.85500000       47.13179000       27.96979000
       346    1   1.000000       14.07500000       56.88315000       16.63024000
       347    1   1.000000       36.59500000       47.13179000       16.63024000
       348    1   1.000000       30.96500000       56.88315000       16.63024000
       349    1   1.000000       36.59500000       53.63272000       27.78022000
       350    1   1.000000       42.22500000       43.88130000       27.78022000
       351    1   1.000000       36.59500000       47.13179000       27.96979000
       352    1   1.000000       39.41000000       42.25605000       27.96979000
       353    1   1.000000       36.59500000       43.88130000       5.66978000
       354    1   1.000000       16.89000000       52.00747000       27.96979000
       355    1   1.000000       42.22500000       40.63087000       5.48021000
       356    1   1.000000       47.85500000       43.88130000       5.66978000
       357    1   1.000000       47.85500000       40.63087000       5.48021000
       358    1   1.000000       50.67000000       29.25420000       5.66978000
       359    1   1.000000       53.48500000       34.12988000       27.78022000
       360    1   1.000000       5.63000000       39.00562000       27.78022000
       361    1   1.000000       53.48500000       37.38037000       16.63024000
       362    1   1.000000       0.00000000       32.50469000       27.96979000
       363    1   1.000000       14.07500000       56.88315000       27.96979000
       364    1   1.000000       16.89000000       48.75698000       5.66978000
       365    1   1.000000       33.78000000       39.00562000       5.66978000
       366    1   1.000000       36.59500000       40.63087000       16.81976000
       367    1   1.000000       47.85500000       47.13179000       16.63024000
       368    1   1.000000       47.85500000       40.63087000       16.81976000
       369    1   1.000000       45.04000000       45.50655000       16.81976000